 DBCSR| CPU Multiplication driver                                           BLAS
 DBCSR| Multrec recursion limit                                              512
 DBCSR| Multiplication stack size                                           1000
 DBCSR| Maximum elements for images                                    UNLIMITED
 DBCSR| Multiplicative factor virtual images                                   1
 DBCSR| Use multiplication densification                                       T
 DBCSR| Multiplication size stacks                                             3
 DBCSR| Use memory pool for CPU allocation                                     F
 DBCSR| Number of 3D layers                                               SINGLE
 DBCSR| Use MPI memory allocation                                              F
 DBCSR| Use RMA algorithm                                                      F
 DBCSR| Use Communication thread                                               T
 DBCSR| Communication thread load                                             45
 DBCSR| MPI: My node id                                                        0
 DBCSR| MPI: Number of nodes                                                   1
 DBCSR| OMP: Current number of threads                                        12
 DBCSR| OMP: Max number of threads                                            12
 DBCSR| Split modifier for TAS multiplication algorithm                  1.0E+00


  **** **** ******  **  PROGRAM STARTED AT               2022-02-12 17:38:27.888
 ***** ** ***  *** **   PROGRAM STARTED ON                Jans-MacBook-Pro.local
 **    ****   ******    PROGRAM STARTED BY                              jvanbuel
 ***** **    ** ** **   PROGRAM PROCESS ID                                  6682
  **** **  *******  **  PROGRAM STARTED IN /Users/jvanbuel/openmpi-playground/cp
                                           2k

 CP2K| version string:                                          CP2K version 8.2
 CP2K| source code revision number:                                  git:310b7ab
 CP2K| cp2kflags: omp libint fftw3 libxc parallel mpi3 scalapack no_statm_access
 CP2K|             accelerate
 CP2K| is freely available from                            https://www.cp2k.org/
 CP2K| Program compiled at                          Tue Nov  2 11:05:54 UTC 2021
 CP2K| Program compiled on                                              Monterey
 CP2K| Program compiled for                                      Darwin-gfortran
 CP2K| Data directory path    /private/tmp/cp2k-20211102-76414-iljokm/cp2k-8.2/d
 CP2K| Input file name                                                    h2o.in

 GLOBAL| Force Environment number                                              1
 GLOBAL| Basis set file name                                         ./BASIS_SET
 GLOBAL| Potential file name                                         ./POTENTIAL
 GLOBAL| MM Potential file name                                     MM_POTENTIAL
 GLOBAL| Coordinate file name                                      __STD_INPUT__
 GLOBAL| Method name                                                        CP2K
 GLOBAL| Project name                                                        H2O
 GLOBAL| Run type                                                        GEO_OPT
 GLOBAL| FFT library                                                       FFTW3
 GLOBAL| Diagonalization library                                       ScaLAPACK
 GLOBAL| Orthonormality check for eigenvectors                          DISABLED
 GLOBAL| Matrix multiplication library                                    SCALAP
 GLOBAL| All-to-all communication in single precision                          F
 GLOBAL| FFTs using library dependent lengths                                  F
 GLOBAL| Grid backend                                                       AUTO
 GLOBAL| Global print level                                                  LOW
 GLOBAL| MPI I/O enabled                                                       T
 GLOBAL| Total number of message passing processes                             1
 GLOBAL| Number of threads for this process                                   12
 GLOBAL| This output is from process                                           0
 GLOBAL| CPU model name                                                  UNKNOWN
 GLOBAL| CPUID                                                              1000

 MEMORY| system memory details [Kb]
 MEMORY|                        rank 0           min           max       average
 MEMORY| MemTotal                    0             0             0             0
 MEMORY| MemFree                     0             0             0             0
 MEMORY| Buffers                     0             0             0             0
 MEMORY| Cached                      0             0             0             0
 MEMORY| Slab                        0             0             0             0
 MEMORY| SReclaimable                0             0             0             0
 MEMORY| MemLikelyFree               0             0             0             0


 GENERATE|  Preliminary Number of Bonds generated:                             0
 GENERATE|  Achieved consistency in connectivity generation.

 *******************************************************************************
 *******************************************************************************
 **                                                                           **
 **     #####                         ##              ##                      **
 **    ##   ##            ##          ##              ##                      **
 **   ##     ##                       ##            ######                    **
 **   ##     ##  ##   ##  ##   #####  ##  ##   ####   ##    #####    #####    **
 **   ##     ##  ##   ##  ##  ##      ## ##   ##      ##   ##   ##  ##   ##   **
 **   ##  ## ##  ##   ##  ##  ##      ####     ###    ##   ######   ######    **
 **    ##  ###   ##   ##  ##  ##      ## ##      ##   ##   ##       ##        **
 **     #######   #####   ##   #####  ##  ##  ####    ##    #####   ##        **
 **           ##                                                    ##        **
 **                                                                           **
 **                                                ... make the atoms dance   **
 **                                                                           **
 **            Copyright (C) by CP2K developers group (2000-2021)             **
 **                      J. Chem. Phys. 152, 194103 (2020)                    **
 **                                                                           **
 *******************************************************************************


 TOTAL NUMBERS AND MAXIMUM NUMBERS

  Total number of            - Atomic kinds:                                   2
                             - Atoms:                                          3
                             - Shell sets:                                     6
                             - Shells:                                        11
                             - Primitive Cartesian functions:                 15
                             - Cartesian basis functions:                     24
                             - Spherical basis functions:                     23

  Maximum angular momentum of- Orbital basis functions:                        2
                             - Local part of the GTH pseudopotential:          2
                             - Non-local part of the GTH pseudopotential:      0


 SCF PARAMETERS         Density guess:                                    ATOMIC
                        --------------------------------------------------------
                        max_scf:                                             200
                        max_scf_history:                                       0
                        max_diis:                                              4
                        --------------------------------------------------------
                        eps_scf:                                        1.00E-05
                        eps_scf_history:                                0.00E+00
                        eps_diis:                                       1.00E-01
                        eps_eigval:                                     1.00E-05
                        --------------------------------------------------------
                        level_shift [a.u.]:                                 0.00
                        --------------------------------------------------------
                        Mixing method:                              PULAY_MIXING
                                                charge density mixing in g-space
                        --------------------------------------------------------
                        No outer SCF

 *******************************************************************************
 ***                     STARTING GEOMETRY OPTIMIZATION                      ***
 ***                           CONJUGATE GRADIENTS                           ***
 *******************************************************************************

 Number of electrons:                                                          8
 Number of occupied orbitals:                                                  4
 Number of molecular orbitals:                                                 4

 Number of orbital functions:                                                 23
 Number of independent orbital functions:                                     23

 Extrapolation method: initial_guess


 SCF WAVEFUNCTION OPTIMIZATION

  Step     Update method      Time    Convergence         Total energy    Change
  ------------------------------------------------------------------------------
     1 NoMix/Diag. 0.50E+00    0.2     1.14126075       -17.0091284464 -1.70E+01
     2 Pulay/Diag. 0.50E+00    0.3     0.37692456       -15.9319515815  1.08E+00
     3 Pulay/Diag. 0.50E+00    0.3     0.08104044       -17.4315725448 -1.50E+00
     4 Pulay/Diag. 0.50E+00    0.3     0.01022195       -17.1557819957  2.76E-01
     5 Pulay/Diag. 0.50E+00    0.3     0.00392885       -17.1916748367 -3.59E-02
     6 Pulay/Diag. 0.50E+00    0.3     0.00130980       -17.1693054257  2.24E-02
     7 Pulay/Diag. 0.50E+00    0.3     0.00059051       -17.1649261193  4.38E-03
     8 Pulay/Diag. 0.50E+00    0.3     0.00056162       -17.1645402056  3.86E-04
     9 Pulay/Diag. 0.50E+00    0.3     0.00020889       -17.1637669191  7.73E-04
    10 Pulay/Diag. 0.50E+00    0.3     0.00008745       -17.1638478853 -8.10E-05
    11 Pulay/Diag. 0.50E+00    0.3     0.00003405       -17.1636663313  1.82E-04
    12 Pulay/Diag. 0.50E+00    0.3     0.00001742       -17.1637269804 -6.06E-05
    13 Pulay/Diag. 0.50E+00    0.3     0.00000474       -17.1636724779  5.45E-05

  *** SCF run converged in    13 steps ***


  Electronic density on regular grids:         -8.0000016708       -0.0000016708
  Core density on regular grids:                7.9999999225       -0.0000000775
  Total charge density on r-space grids:       -0.0000017482
  Total charge density g-space grids:          -0.0000017482

  Overlap energy of the core charge distribution:               0.00000008790619
  Self energy of the core charge distribution:                -43.83289054591484
  Core Hamiltonian energy:                                     12.88082901664340
  Hartree energy:                                              17.93243606703550
  Exchange-correlation energy:                                 -4.14404710361531

  Total energy:                                               -17.16367247794506

 ENERGY| Total FORCE_EVAL ( QS ) energy [a.u.]:              -17.163667085234941

 --------  Informations at step =     0 ------------
  Optimization Method        =                   SD
  Total Energy               =       -17.1636670852
  Used time                  =                4.674
 ---------------------------------------------------

 --------------------------
 OPTIMIZATION STEP:      1
 --------------------------

 Number of electrons:                                                          8
 Number of occupied orbitals:                                                  4
 Number of molecular orbitals:                                                 4

 Number of orbital functions:                                                 23
 Number of independent orbital functions:                                     23

 Extrapolation method: ASPC


 SCF WAVEFUNCTION OPTIMIZATION

  Step     Update method      Time    Convergence         Total energy    Change
  ------------------------------------------------------------------------------
     1 Pulay/Diag. 0.50E+00    0.1     0.00000319       -17.1636670852 -1.72E+01

  *** SCF run converged in     1 steps ***


  Electronic density on regular grids:         -8.0000016708       -0.0000016708
  Core density on regular grids:                7.9999999225       -0.0000000775
  Total charge density on r-space grids:       -0.0000017482
  Total charge density g-space grids:          -0.0000017482

  Overlap energy of the core charge distribution:               0.00000008790619
  Self energy of the core charge distribution:                -43.83289054591484
  Core Hamiltonian energy:                                     12.88083641009605
  Hartree energy:                                              17.93243527999480
  Exchange-correlation energy:                                 -4.14404831731714

  Total energy:                                               -17.16366708523494

 ENERGY| Total FORCE_EVAL ( QS ) energy [a.u.]:              -17.163667085234938

 Number of electrons:                                                          8
 Number of occupied orbitals:                                                  4
 Number of molecular orbitals:                                                 4

 Number of orbital functions:                                                 23
 Number of independent orbital functions:                                     23

 Extrapolation method: ASPC


 SCF WAVEFUNCTION OPTIMIZATION

  Step     Update method      Time    Convergence         Total energy    Change
  ------------------------------------------------------------------------------
     1 Pulay/Diag. 0.50E+00    0.1     0.09314887       -17.1596411225 -1.72E+01
     2 Pulay/Diag. 0.50E+00    0.3     0.05242230       -17.3364934960 -1.77E-01
     3 Pulay/Diag. 0.50E+00    0.3     0.01721066       -17.1071065929  2.29E-01
     4 Pulay/Diag. 0.50E+00    0.3     0.00188574       -17.1639028725 -5.68E-02
     5 Pulay/Diag. 0.50E+00    0.3     0.00038991       -17.1591802159  4.72E-03
     6 Pulay/Diag. 0.50E+00    0.3     0.00015544       -17.1608427091 -1.66E-03
     7 Pulay/Diag. 0.50E+00    0.3     0.00004638       -17.1613983459 -5.56E-04
     8 Pulay/Diag. 0.50E+00    0.3     0.00003099       -17.1614614148 -6.31E-05
     9 Pulay/Diag. 0.50E+00    0.4     0.00001176       -17.1614750313 -1.36E-05
    10 Pulay/Diag. 0.50E+00    0.4     0.00000549       -17.1614738440  1.19E-06

  *** SCF run converged in    10 steps ***


  Electronic density on regular grids:         -8.0000016729       -0.0000016729
  Core density on regular grids:                7.9999997936       -0.0000002064
  Total charge density on r-space grids:       -0.0000018793
  Total charge density g-space grids:          -0.0000018793

  Overlap energy of the core charge distribution:               0.00000000989725
  Self energy of the core charge distribution:                -43.83289054591484
  Core Hamiltonian energy:                                     12.69954412958919
  Hartree energy:                                              18.06385522967776
  Exchange-correlation energy:                                 -4.09198266729027

  Total energy:                                               -17.16147384404091

 ENERGY| Total FORCE_EVAL ( QS ) energy [a.u.]:              -17.161473844040913

 Number of electrons:                                                          8
 Number of occupied orbitals:                                                  4
 Number of molecular orbitals:                                                 4

 Number of orbital functions:                                                 23
 Number of independent orbital functions:                                     23

 Extrapolation method: ASPC


 SCF WAVEFUNCTION OPTIMIZATION

  Step     Update method      Time    Convergence         Total energy    Change
  ------------------------------------------------------------------------------
     1 Pulay/Diag. 0.50E+00    0.1     0.35670558       -17.0997779659 -1.71E+01
     2 Pulay/Diag. 0.50E+00    0.3     0.17256415       -16.4457223448  6.54E-01
     3 Pulay/Diag. 0.50E+00    0.3     0.05554013       -17.2035105519 -7.58E-01
     4 Pulay/Diag. 0.50E+00    0.3     0.01055538       -17.1068669909  9.66E-02
     5 Pulay/Diag. 0.50E+00    0.3     0.00166654       -17.1409680438 -3.41E-02
     6 Pulay/Diag. 0.50E+00    0.3     0.00065723       -17.1348781227  6.09E-03
     7 Pulay/Diag. 0.50E+00    0.3     0.00017923       -17.1331525278  1.73E-03
     8 Pulay/Diag. 0.50E+00    0.3     0.00016873       -17.1329573633  1.95E-04
     9 Pulay/Diag. 0.50E+00    0.3     0.00004880       -17.1328642655  9.31E-05
    10 Pulay/Diag. 0.50E+00    0.3     0.00002857       -17.1328976620 -3.34E-05
    11 Pulay/Diag. 0.50E+00    0.3     0.00000781       -17.1328740969  2.36E-05

  *** SCF run converged in    11 steps ***


  Electronic density on regular grids:         -8.0000016495       -0.0000016495
  Core density on regular grids:                7.9999997183       -0.0000002817
  Total charge density on r-space grids:       -0.0000019312
  Total charge density g-space grids:          -0.0000019312

  Overlap energy of the core charge distribution:               0.00000234899947
  Self energy of the core charge distribution:                -43.83289054591484
  Core Hamiltonian energy:                                     13.24448189154049
  Hartree energy:                                              17.69629833773258
  Exchange-correlation energy:                                 -4.24076612924643

  Total energy:                                               -17.13287409688872

 ENERGY| Total FORCE_EVAL ( QS ) energy [a.u.]:              -17.132874096888720

 *******************************************************************************
 ***                 MNBRACK - NUMBER OF ENERGY EVALUATIONS :       3        ***
 *******************************************************************************

 Number of electrons:                                                          8
 Number of occupied orbitals:                                                  4
 Number of molecular orbitals:                                                 4

 Number of orbital functions:                                                 23
 Number of independent orbital functions:                                     23

 Extrapolation method: ASPC


 SCF WAVEFUNCTION OPTIMIZATION

  Step     Update method      Time    Convergence         Total energy    Change
  ------------------------------------------------------------------------------
     1 Pulay/Diag. 0.50E+00    0.1     0.81656070       -17.0612665168 -1.71E+01
     2 Pulay/Diag. 0.50E+00    0.3     0.32206410       -18.3378181406 -1.28E+00
     3 Pulay/Diag. 0.50E+00    0.3     0.10971165       -16.8855067380  1.45E+00
     4 Pulay/Diag. 0.50E+00    0.3     0.01798008       -17.2034938521 -3.18E-01
     5 Pulay/Diag. 0.50E+00    0.3     0.00242339       -17.1508777882  5.26E-02
     6 Pulay/Diag. 0.50E+00    0.3     0.00081669       -17.1607007093 -9.82E-03
     7 Pulay/Diag. 0.50E+00    0.3     0.00027040       -17.1633320839 -2.63E-03
     8 Pulay/Diag. 0.50E+00    0.3     0.00019397       -17.1636753076 -3.43E-04
     9 Pulay/Diag. 0.50E+00    0.3     0.00006461       -17.1637164205 -4.11E-05
    10 Pulay/Diag. 0.50E+00    0.3     0.00002902       -17.1636878646  2.86E-05
    11 Pulay/Diag. 0.50E+00    0.3     0.00001741       -17.1636771230  1.07E-05
    12 Pulay/Diag. 0.50E+00    0.3     0.00000536       -17.1636746524  2.47E-06

  *** SCF run converged in    12 steps ***


  Electronic density on regular grids:         -8.0000016708       -0.0000016708
  Core density on regular grids:                7.9999999225       -0.0000000775
  Total charge density on r-space grids:       -0.0000017482
  Total charge density g-space grids:          -0.0000017482

  Overlap energy of the core charge distribution:               0.00000008790619
  Self energy of the core charge distribution:                -43.83289054591484
  Core Hamiltonian energy:                                     12.88081888852062
  Hartree energy:                                              17.93244598011836
  Exchange-correlation energy:                                 -4.14404906303236

  Total energy:                                               -17.16367465240203

 ENERGY| Total FORCE_EVAL ( QS ) energy [a.u.]:              -17.163667085234415

 Number of electrons:                                                          8
 Number of occupied orbitals:                                                  4
 Number of molecular orbitals:                                                 4

 Number of orbital functions:                                                 23
 Number of independent orbital functions:                                     23

 Extrapolation method: ASPC


 SCF WAVEFUNCTION OPTIMIZATION

  Step     Update method      Time    Convergence         Total energy    Change
  ------------------------------------------------------------------------------
     1 Pulay/Diag. 0.50E+00    0.1     0.65602549       -17.0592440665 -1.71E+01
     2 Pulay/Diag. 0.50E+00    0.3     0.42094203       -15.6568086244  1.40E+00
     3 Pulay/Diag. 0.50E+00    0.3     0.12091186       -17.5105859475 -1.85E+00
     4 Pulay/Diag. 0.50E+00    0.3     0.01071530       -17.1551034350  3.55E-01
     5 Pulay/Diag. 0.50E+00    0.3     0.00331085       -17.1821879152 -2.71E-02
     6 Pulay/Diag. 0.50E+00    0.3     0.00133765       -17.1693084604  1.29E-02
     7 Pulay/Diag. 0.50E+00    0.3     0.00044932       -17.1649104561  4.40E-03
     8 Pulay/Diag. 0.50E+00    0.3     0.00031926       -17.1643558979  5.55E-04
     9 Pulay/Diag. 0.50E+00    0.3     0.00010877       -17.1640915701  2.64E-04
    10 Pulay/Diag. 0.50E+00    0.3     0.00005875       -17.1641580192 -6.64E-05
    11 Pulay/Diag. 0.50E+00    0.3     0.00001449       -17.1640970473  6.10E-05
    12 Pulay/Diag. 0.50E+00    0.4     0.00000563       -17.1641253305 -2.83E-05

  *** SCF run converged in    12 steps ***


  Electronic density on regular grids:         -8.0000016667       -0.0000016667
  Core density on regular grids:                7.9999997491       -0.0000002509
  Total charge density on r-space grids:       -0.0000019176
  Total charge density g-space grids:          -0.0000019176

  Overlap energy of the core charge distribution:               0.00000002993139
  Self energy of the core charge distribution:                -43.83289054591484
  Core Hamiltonian energy:                                     12.78640769119497
  Hartree energy:                                              17.99968668557755
  Exchange-correlation energy:                                 -4.11732919133748

  Total energy:                                               -17.16412533054840

 ENERGY| Total FORCE_EVAL ( QS ) energy [a.u.]:              -17.164119922224195

 Number of electrons:                                                          8
 Number of occupied orbitals:                                                  4
 Number of molecular orbitals:                                                 4

 Number of orbital functions:                                                 23
 Number of independent orbital functions:                                     23

 Extrapolation method: ASPC


 SCF WAVEFUNCTION OPTIMIZATION

  Step     Update method      Time    Convergence         Total energy    Change
  ------------------------------------------------------------------------------
     1 Pulay/Diag. 0.50E+00    0.1     0.25607526       -17.1496587252 -1.71E+01
     2 Pulay/Diag. 0.50E+00    0.3     0.14812337       -17.6889529782 -5.39E-01
     3 Pulay/Diag. 0.50E+00    0.3     0.04632242       -17.0213738990  6.68E-01
     4 Pulay/Diag. 0.50E+00    0.3     0.00488296       -17.1704574861 -1.49E-01
     5 Pulay/Diag. 0.50E+00    0.3     0.00098556       -17.1590405571  1.14E-02
     6 Pulay/Diag. 0.50E+00    0.3     0.00037165       -17.1629843718 -3.94E-03
     7 Pulay/Diag. 0.50E+00    0.3     0.00012790       -17.1642104667 -1.23E-03
     8 Pulay/Diag. 0.50E+00    0.3     0.00008048       -17.1643615869 -1.51E-04
     9 Pulay/Diag. 0.50E+00    0.3     0.00002814       -17.1643652876 -3.70E-06
    10 Pulay/Diag. 0.50E+00    0.3     0.00001260       -17.1643516047  1.37E-05
    11 Pulay/Diag. 0.50E+00    0.3     0.00000609       -17.1643466954  4.91E-06

  *** SCF run converged in    11 steps ***


  Electronic density on regular grids:         -8.0000016641       -0.0000016641
  Core density on regular grids:                7.9999997878       -0.0000002122
  Total charge density on r-space grids:       -0.0000018763
  Total charge density g-space grids:          -0.0000018763

  Overlap energy of the core charge distribution:               0.00000004390668
  Self energy of the core charge distribution:                -43.83289054591484
  Core Hamiltonian energy:                                     12.81880460482572
  Hartree energy:                                              17.97632913103899
  Exchange-correlation energy:                                 -4.12658992924386

  Total energy:                                               -17.16434669538730

 ENERGY| Total FORCE_EVAL ( QS ) energy [a.u.]:              -17.164344233567466

 Number of electrons:                                                          8
 Number of occupied orbitals:                                                  4
 Number of molecular orbitals:                                                 4

 Number of orbital functions:                                                 23
 Number of independent orbital functions:                                     23

 Extrapolation method: ASPC


 SCF WAVEFUNCTION OPTIMIZATION

  Step     Update method      Time    Convergence         Total energy    Change
  ------------------------------------------------------------------------------
     1 Pulay/Diag. 0.50E+00    0.1     0.01620034       -17.1643144609 -1.72E+01
 DBCSR| CPU Multiplication driver                                           BLAS
 DBCSR| Multrec recursion limit                                              512
 DBCSR| Multiplication stack size                                           1000
 DBCSR| Maximum elements for images                                    UNLIMITED
 DBCSR| Multiplicative factor virtual images                                   1
 DBCSR| Use multiplication densification                                       T
 DBCSR| Multiplication size stacks                                             3
 DBCSR| Use memory pool for CPU allocation                                     F
 DBCSR| Number of 3D layers                                               SINGLE
 DBCSR| Use MPI memory allocation                                              F
 DBCSR| Use RMA algorithm                                                      F
 DBCSR| Use Communication thread                                               T
 DBCSR| Communication thread load                                             45
 DBCSR| MPI: My node id                                                        0
 DBCSR| MPI: Number of nodes                                                   1
 DBCSR| OMP: Current number of threads                                        12
 DBCSR| OMP: Max number of threads                                            12
 DBCSR| Split modifier for TAS multiplication algorithm                  1.0E+00


  **** **** ******  **  PROGRAM STARTED AT               2022-02-12 17:38:57.619
 ***** ** ***  *** **   PROGRAM STARTED ON                Jans-MacBook-Pro.local
 **    ****   ******    PROGRAM STARTED BY                              jvanbuel
 ***** **    ** ** **   PROGRAM PROCESS ID                                  6706
  **** **  *******  **  PROGRAM STARTED IN /Users/jvanbuel/openmpi-playground/cp
                                           2k

 CP2K| version string:                                          CP2K version 8.2
 CP2K| source code revision number:                                  git:310b7ab
 CP2K| cp2kflags: omp libint fftw3 libxc parallel mpi3 scalapack no_statm_access
 CP2K|             accelerate
 CP2K| is freely available from                            https://www.cp2k.org/
 CP2K| Program compiled at                          Tue Nov  2 11:05:54 UTC 2021
 CP2K| Program compiled on                                              Monterey
 CP2K| Program compiled for                                      Darwin-gfortran
 CP2K| Data directory path    /private/tmp/cp2k-20211102-76414-iljokm/cp2k-8.2/d
 CP2K| Input file name                                                    h2o.in

 GLOBAL| Force Environment number                                              1
 GLOBAL| Basis set file name                                         ./BASIS_SET
 GLOBAL| Potential file name                                         ./POTENTIAL
 GLOBAL| MM Potential file name                                     MM_POTENTIAL
 GLOBAL| Coordinate file name                                      __STD_INPUT__
 GLOBAL| Method name                                                        CP2K
 GLOBAL| Project name                                                        H2O
 GLOBAL| Run type                                                        GEO_OPT
 GLOBAL| FFT library                                                       FFTW3
 GLOBAL| Diagonalization library                                       ScaLAPACK
 GLOBAL| Orthonormality check for eigenvectors                          DISABLED
 GLOBAL| Matrix multiplication library                                    SCALAP
 GLOBAL| All-to-all communication in single precision                          F
 GLOBAL| FFTs using library dependent lengths                                  F
 GLOBAL| Grid backend                                                       AUTO
 GLOBAL| Global print level                                                  LOW
 GLOBAL| MPI I/O enabled                                                       T
 GLOBAL| Total number of message passing processes                             1
 GLOBAL| Number of threads for this process                                   12
 GLOBAL| This output is from process                                           0
 GLOBAL| CPU model name                                                  UNKNOWN
 GLOBAL| CPUID                                                              1000

 MEMORY| system memory details [Kb]
 MEMORY|                        rank 0           min           max       average
 MEMORY| MemTotal                    0             0             0             0
 MEMORY| MemFree                     0             0             0             0
 MEMORY| Buffers                     0             0             0             0
 MEMORY| Cached                      0             0             0             0
 MEMORY| Slab                        0             0             0             0
 MEMORY| SReclaimable                0             0             0             0
 MEMORY| MemLikelyFree               0             0             0             0


 GENERATE|  Preliminary Number of Bonds generated:                             0
 GENERATE|  Achieved consistency in connectivity generation.

 *******************************************************************************
 *******************************************************************************
 **                                                                           **
 **     #####                         ##              ##                      **
 **    ##   ##            ##          ##              ##                      **
 **   ##     ##                       ##            ######                    **
 **   ##     ##  ##   ##  ##   #####  ##  ##   ####   ##    #####    #####    **
 **   ##     ##  ##   ##  ##  ##      ## ##   ##      ##   ##   ##  ##   ##   **
 **   ##  ## ##  ##   ##  ##  ##      ####     ###    ##   ######   ######    **
 **    ##  ###   ##   ##  ##  ##      ## ##      ##   ##   ##       ##        **
 **     #######   #####   ##   #####  ##  ##  ####    ##    #####   ##        **
 **           ##                                                    ##        **
 **                                                                           **
 **                                                ... make the atoms dance   **
 **                                                                           **
 **            Copyright (C) by CP2K developers group (2000-2021)             **
 **                      J. Chem. Phys. 152, 194103 (2020)                    **
 **                                                                           **
 *******************************************************************************


 TOTAL NUMBERS AND MAXIMUM NUMBERS

  Total number of            - Atomic kinds:                                   2
                             - Atoms:                                          3
                             - Shell sets:                                     6
                             - Shells:                                        11
                             - Primitive Cartesian functions:                 15
                             - Cartesian basis functions:                     24
                             - Spherical basis functions:                     23

  Maximum angular momentum of- Orbital basis functions:                        2
                             - Local part of the GTH pseudopotential:          2
                             - Non-local part of the GTH pseudopotential:      0


 SCF PARAMETERS         Density guess:                                    ATOMIC
                        --------------------------------------------------------
                        max_scf:                                             200
                        max_scf_history:                                       0
                        max_diis:                                              4
                        --------------------------------------------------------
                        eps_scf:                                        1.00E-05
                        eps_scf_history:                                0.00E+00
                        eps_diis:                                       1.00E-01
                        eps_eigval:                                     1.00E-05
                        --------------------------------------------------------
                        level_shift [a.u.]:                                 0.00
                        --------------------------------------------------------
                        Mixing method:                              PULAY_MIXING
                                                charge density mixing in g-space
                        --------------------------------------------------------
                        No outer SCF

 *******************************************************************************
 ***                     STARTING GEOMETRY OPTIMIZATION                      ***
 ***                           CONJUGATE GRADIENTS                           ***
 *******************************************************************************

 Number of electrons:                                                          8
 Number of occupied orbitals:                                                  4
 Number of molecular orbitals:                                                 4

 Number of orbital functions:                                                 23
 Number of independent orbital functions:                                     23

 Extrapolation method: initial_guess


 SCF WAVEFUNCTION OPTIMIZATION

  Step     Update method      Time    Convergence         Total energy    Change
  ------------------------------------------------------------------------------
     1 NoMix/Diag. 0.50E+00    0.2     1.14126075       -17.0091284464 -1.70E+01
     2 Pulay/Diag. 0.50E+00    0.3     0.37692456       -15.9319515815  1.08E+00
     3 Pulay/Diag. 0.50E+00    0.3     0.08104044       -17.4315725448 -1.50E+00
     4 Pulay/Diag. 0.50E+00    0.3     0.01022195       -17.1557819957  2.76E-01
     5 Pulay/Diag. 0.50E+00    0.3     0.00392885       -17.1916748367 -3.59E-02
     6 Pulay/Diag. 0.50E+00    0.3     0.00130980       -17.1693054257  2.24E-02
     7 Pulay/Diag. 0.50E+00    0.3     0.00059051       -17.1649261193  4.38E-03
     8 Pulay/Diag. 0.50E+00    0.3     0.00056162       -17.1645402056  3.86E-04
     9 Pulay/Diag. 0.50E+00    0.3     0.00020889       -17.1637669191  7.73E-04
    10 Pulay/Diag. 0.50E+00    0.3     0.00008745       -17.1638478853 -8.10E-05
    11 Pulay/Diag. 0.50E+00    0.3     0.00003405       -17.1636663313  1.82E-04
    12 Pulay/Diag. 0.50E+00    0.3     0.00001742       -17.1637269804 -6.06E-05
    13 Pulay/Diag. 0.50E+00    0.3     0.00000474       -17.1636724779  5.45E-05

  *** SCF run converged in    13 steps ***


  Electronic density on regular grids:         -8.0000016708       -0.0000016708
  Core density on regular grids:                7.9999999225       -0.0000000775
  Total charge density on r-space grids:       -0.0000017482
  Total charge density g-space grids:          -0.0000017482

  Overlap energy of the core charge distribution:               0.00000008790619
  Self energy of the core charge distribution:                -43.83289054591484
  Core Hamiltonian energy:                                     12.88082901664343
  Hartree energy:                                              17.93243606703550
  Exchange-correlation energy:                                 -4.14404710361530

  Total energy:                                               -17.16367247794503

 ENERGY| Total FORCE_EVAL ( QS ) energy [a.u.]:              -17.163667085234934

 --------  Informations at step =     0 ------------
  Optimization Method        =                   SD
  Total Energy               =       -17.1636670852
  Used time                  =                4.541
 ---------------------------------------------------

 --------------------------
 OPTIMIZATION STEP:      1
 --------------------------

 Number of electrons:                                                          8
 Number of occupied orbitals:                                                  4
 Number of molecular orbitals:                                                 4

 Number of orbital functions:                                                 23
 Number of independent orbital functions:                                     23

 Extrapolation method: ASPC


 SCF WAVEFUNCTION OPTIMIZATION

  Step     Update method      Time    Convergence         Total energy    Change
  ------------------------------------------------------------------------------
     1 Pulay/Diag. 0.50E+00    0.1     0.00000319       -17.1636670852 -1.72E+01

  *** SCF run converged in     1 steps ***


  Electronic density on regular grids:         -8.0000016708       -0.0000016708
  Core density on regular grids:                7.9999999225       -0.0000000775
  Total charge density on r-space grids:       -0.0000017482
  Total charge density g-space grids:          -0.0000017482

  Overlap energy of the core charge distribution:               0.00000008790619
  Self energy of the core charge distribution:                -43.83289054591484
  Core Hamiltonian energy:                                     12.88083641009606
  Hartree energy:                                              17.93243527999479
  Exchange-correlation energy:                                 -4.14404831731715

  Total energy:                                               -17.16366708523494

 ENERGY| Total FORCE_EVAL ( QS ) energy [a.u.]:              -17.163667085234941

 Number of electrons:                                                          8
 Number of occupied orbitals:                                                  4
 Number of molecular orbitals:                                                 4

 Number of orbital functions:                                                 23
 Number of independent orbital functions:                                     23

 Extrapolation method: ASPC


 SCF WAVEFUNCTION OPTIMIZATION

  Step     Update method      Time    Convergence         Total energy    Change
  ------------------------------------------------------------------------------
     1 Pulay/Diag. 0.50E+00    0.1     0.09314887       -17.1596411225 -1.72E+01
     2 Pulay/Diag. 0.50E+00    0.3     0.05242230       -17.3364934960 -1.77E-01
     3 Pulay/Diag. 0.50E+00    0.3     0.01721066       -17.1071065929  2.29E-01
     4 Pulay/Diag. 0.50E+00    0.3     0.00188574       -17.1639028725 -5.68E-02
     5 Pulay/Diag. 0.50E+00    0.4     0.00038991       -17.1591802159  4.72E-03
     6 Pulay/Diag. 0.50E+00    0.3     0.00015544       -17.1608427091 -1.66E-03
     7 Pulay/Diag. 0.50E+00    0.3     0.00004638       -17.1613983459 -5.56E-04
     8 Pulay/Diag. 0.50E+00    0.3     0.00003099       -17.1614614148 -6.31E-05
     9 Pulay/Diag. 0.50E+00    0.3     0.00001176       -17.1614750313 -1.36E-05
    10 Pulay/Diag. 0.50E+00    0.4     0.00000549       -17.1614738440  1.19E-06

  *** SCF run converged in    10 steps ***


  Electronic density on regular grids:         -8.0000016729       -0.0000016729
  Core density on regular grids:                7.9999997936       -0.0000002064
  Total charge density on r-space grids:       -0.0000018793
  Total charge density g-space grids:          -0.0000018793

  Overlap energy of the core charge distribution:               0.00000000989725
  Self energy of the core charge distribution:                -43.83289054591484
  Core Hamiltonian energy:                                     12.69954412958922
  Hartree energy:                                              18.06385522967777
  Exchange-correlation energy:                                 -4.09198266729027

  Total energy:                                               -17.16147384404087

 ENERGY| Total FORCE_EVAL ( QS ) energy [a.u.]:              -17.161473844040867

 Number of electrons:                                                          8
 Number of occupied orbitals:                                                  4
 Number of molecular orbitals:                                                 4

 Number of orbital functions:                                                 23
 Number of independent orbital functions:                                     23

 Extrapolation method: ASPC


 SCF WAVEFUNCTION OPTIMIZATION

  Step     Update method      Time    Convergence         Total energy    Change
  ------------------------------------------------------------------------------
     1 Pulay/Diag. 0.50E+00    0.1     0.35670558       -17.0997779659 -1.71E+01
     2 Pulay/Diag. 0.50E+00    0.3     0.17256415       -16.4457223448  6.54E-01
     3 Pulay/Diag. 0.50E+00    0.3     0.05554013       -17.2035105519 -7.58E-01
     4 Pulay/Diag. 0.50E+00    0.3     0.01055538       -17.1068669909  9.66E-02
     5 Pulay/Diag. 0.50E+00    0.3     0.00166654       -17.1409680438 -3.41E-02
     6 Pulay/Diag. 0.50E+00    0.3     0.00065723       -17.1348781227  6.09E-03
     7 Pulay/Diag. 0.50E+00    0.3     0.00017923       -17.1331525278  1.73E-03
     8 Pulay/Diag. 0.50E+00    0.3     0.00016873       -17.1329573633  1.95E-04
     9 Pulay/Diag. 0.50E+00    0.4     0.00004880       -17.1328642655  9.31E-05
    10 Pulay/Diag. 0.50E+00    0.3     0.00002857       -17.1328976620 -3.34E-05
    11 Pulay/Diag. 0.50E+00    0.3     0.00000781       -17.1328740969  2.36E-05

  *** SCF run converged in    11 steps ***


  Electronic density on regular grids:         -8.0000016495       -0.0000016495
  Core density on regular grids:                7.9999997183       -0.0000002817
  Total charge density on r-space grids:       -0.0000019312
  Total charge density g-space grids:          -0.0000019312

  Overlap energy of the core charge distribution:               0.00000234899947
  Self energy of the core charge distribution:                -43.83289054591484
  Core Hamiltonian energy:                                     13.24448189154050
  Hartree energy:                                              17.69629833773258
  Exchange-correlation energy:                                 -4.24076612924644

  Total energy:                                               -17.13287409688873

 ENERGY| Total FORCE_EVAL ( QS ) energy [a.u.]:              -17.132874096888727

 *******************************************************************************
 ***                 MNBRACK - NUMBER OF ENERGY EVALUATIONS :       3        ***
 *******************************************************************************

 Number of electrons:                                                          8
 Number of occupied orbitals:                                                  4
 Number of molecular orbitals:                                                 4

 Number of orbital functions:                                                 23
 Number of independent orbital functions:                                     23

 Extrapolation method: ASPC


 SCF WAVEFUNCTION OPTIMIZATION

  Step     Update method      Time    Convergence         Total energy    Change
  ------------------------------------------------------------------------------
     1 Pulay/Diag. 0.50E+00    0.1     0.81656070       -17.0612665168 -1.71E+01
     2 Pulay/Diag. 0.50E+00    0.3     0.32206410       -18.3378181406 -1.28E+00
     3 Pulay/Diag. 0.50E+00    0.3     0.10971165       -16.8855067380  1.45E+00
     4 Pulay/Diag. 0.50E+00    0.3     0.01798008       -17.2034938521 -3.18E-01
     5 Pulay/Diag. 0.50E+00    0.3     0.00242339       -17.1508777882  5.26E-02
     6 Pulay/Diag. 0.50E+00    0.3     0.00081669       -17.1607007093 -9.82E-03
     7 Pulay/Diag. 0.50E+00    0.3     0.00027040       -17.1633320839 -2.63E-03
     8 Pulay/Diag. 0.50E+00    0.3     0.00019397       -17.1636753076 -3.43E-04
     9 Pulay/Diag. 0.50E+00    0.3     0.00006461       -17.1637164205 -4.11E-05
    10 Pulay/Diag. 0.50E+00    0.3     0.00002902       -17.1636878646  2.86E-05
    11 Pulay/Diag. 0.50E+00    0.4     0.00001741       -17.1636771230  1.07E-05
    12 Pulay/Diag. 0.50E+00    0.3     0.00000536       -17.1636746524  2.47E-06

  *** SCF run converged in    12 steps ***


  Electronic density on regular grids:         -8.0000016708       -0.0000016708
  Core density on regular grids:                7.9999999225       -0.0000000775
  Total charge density on r-space grids:       -0.0000017482
  Total charge density g-space grids:          -0.0000017482

  Overlap energy of the core charge distribution:               0.00000008790619
  Self energy of the core charge distribution:                -43.83289054591484
  Core Hamiltonian energy:                                     12.88081888852054
  Hartree energy:                                              17.93244598011839
  Exchange-correlation energy:                                 -4.14404906303236

  Total energy:                                               -17.16367465240208

 ENERGY| Total FORCE_EVAL ( QS ) energy [a.u.]:              -17.163667085234415

 Number of electrons:                                                          8
 Number of occupied orbitals:                                                  4
 Number of molecular orbitals:                                                 4

 Number of orbital functions:                                                 23
 Number of independent orbital functions:                                     23

 Extrapolation method: ASPC


 SCF WAVEFUNCTION OPTIMIZATION

  Step     Update method      Time    Convergence         Total energy    Change
  ------------------------------------------------------------------------------
     1 Pulay/Diag. 0.50E+00    0.1     0.65602549       -17.0592440665 -1.71E+01
     2 Pulay/Diag. 0.50E+00    0.3     0.42094203       -15.6568086244  1.40E+00
     3 Pulay/Diag. 0.50E+00    0.3     0.12091186       -17.5105859475 -1.85E+00
     4 Pulay/Diag. 0.50E+00    0.3     0.01071530       -17.1551034350  3.55E-01
     5 Pulay/Diag. 0.50E+00    0.3     0.00331085       -17.1821879152 -2.71E-02
     6 Pulay/Diag. 0.50E+00    0.3     0.00133765       -17.1693084604  1.29E-02
     7 Pulay/Diag. 0.50E+00    0.3     0.00044932       -17.1649104561  4.40E-03
     8 Pulay/Diag. 0.50E+00    0.3     0.00031926       -17.1643558979  5.55E-04
     9 Pulay/Diag. 0.50E+00    0.3     0.00010877       -17.1640915701  2.64E-04
    10 Pulay/Diag. 0.50E+00    0.3     0.00005875       -17.1641580192 -6.64E-05
    11 Pulay/Diag. 0.50E+00    0.3     0.00001449       -17.1640970473  6.10E-05
    12 Pulay/Diag. 0.50E+00    0.3     0.00000563       -17.1641253305 -2.83E-05

  *** SCF run converged in    12 steps ***


  Electronic density on regular grids:         -8.0000016667       -0.0000016667
  Core density on regular grids:                7.9999997491       -0.0000002509
  Total charge density on r-space grids:       -0.0000019176
  Total charge density g-space grids:          -0.0000019176

  Overlap energy of the core charge distribution:               0.00000002993139
  Self energy of the core charge distribution:                -43.83289054591484
  Core Hamiltonian energy:                                     12.78640769119498
  Hartree energy:                                              17.99968668557755
  Exchange-correlation energy:                                 -4.11732919133748

  Total energy:                                               -17.16412533054839

 ENERGY| Total FORCE_EVAL ( QS ) energy [a.u.]:              -17.164119922224195

 Number of electrons:                                                          8
 Number of occupied orbitals:                                                  4
 Number of molecular orbitals:                                                 4

 Number of orbital functions:                                                 23
 Number of independent orbital functions:                                     23

 Extrapolation method: ASPC


 SCF WAVEFUNCTION OPTIMIZATION

  Step     Update method      Time    Convergence         Total energy    Change
  ------------------------------------------------------------------------------
     1 Pulay/Diag. 0.50E+00    0.1     0.25607526       -17.1496587252 -1.71E+01
     2 Pulay/Diag. 0.50E+00    0.3     0.14812337       -17.6889529782 -5.39E-01
     3 Pulay/Diag. 0.50E+00    0.3     0.04632242       -17.0213738990  6.68E-01
     4 Pulay/Diag. 0.50E+00    0.3     0.00488296       -17.1704574861 -1.49E-01
     5 Pulay/Diag. 0.50E+00    0.3     0.00098556       -17.1590405571  1.14E-02
     6 Pulay/Diag. 0.50E+00    0.3     0.00037165       -17.1629843718 -3.94E-03
     7 Pulay/Diag. 0.50E+00    0.3     0.00012790       -17.1642104667 -1.23E-03
     8 Pulay/Diag. 0.50E+00    0.3     0.00008048       -17.1643615869 -1.51E-04
     9 Pulay/Diag. 0.50E+00    0.3     0.00002814       -17.1643652876 -3.70E-06
    10 Pulay/Diag. 0.50E+00    0.3     0.00001260       -17.1643516047  1.37E-05
    11 Pulay/Diag. 0.50E+00    0.3     0.00000609       -17.1643466954  4.91E-06

  *** SCF run converged in    11 steps ***


  Electronic density on regular grids:         -8.0000016641       -0.0000016641
  Core density on regular grids:                7.9999997878       -0.0000002122
  Total charge density on r-space grids:       -0.0000018763
  Total charge density g-space grids:          -0.0000018763

  Overlap energy of the core charge distribution:               0.00000004390668
  Self energy of the core charge distribution:                -43.83289054591484
  Core Hamiltonian energy:                                     12.81880460482570
  Hartree energy:                                              17.97632913103899
  Exchange-correlation energy:                                 -4.12658992924386

  Total energy:                                               -17.16434669538732

 ENERGY| Total FORCE_EVAL ( QS ) energy [a.u.]:              -17.164344233567462

 Number of electrons:                                                          8
 Number of occupied orbitals:                                                  4
 Number of molecular orbitals:                                                 4

 Number of orbital functions:                                                 23
 Number of independent orbital functions:                                     23

 Extrapolation method: ASPC


 SCF WAVEFUNCTION OPTIMIZATION

  Step     Update method      Time    Convergence         Total energy    Change
  ------------------------------------------------------------------------------
     1 Pulay/Diag. 0.50E+00    0.1     0.01620034       -17.1643144609 -1.72E+01
     2 Pulay/Diag. 0.50E+00    0.3     0.00671753       -17.1421864038  2.21E-02
     3 Pulay/Diag. 0.50E+00    0.3     0.00153561       -17.1709307693 -2.87E-02
     4 Pulay/Diag. 0.50E+00    0.3     0.00006308       -17.1640374952  6.89E-03
     5 Pulay/Diag. 0.50E+00    0.3     0.00001385       -17.1642837619 -2.46E-04
     6 Pulay/Diag. 0.50E+00    0.3     0.00000890       -17.1643184937 -3.47E-05

  *** SCF run converged in     6 steps ***


  Electronic density on regular grids:         -8.0000016642       -0.0000016642
  Core density on regular grids:                7.9999997923       -0.0000002077
  Total charge density on r-space grids:       -0.0000018719
  Total charge density g-space grids:          -0.0000018719

  Overlap energy of the core charge distribution:               0.00000004471872
  Self energy of the core charge distribution:                -43.83289054591484
  Core Hamiltonian energy:                                     12.82041060542499
  Hartree energy:                                              17.97519872019125
  Exchange-correlation energy:                                 -4.12703731809339

  Total energy:                                               -17.16431849367327

 ENERGY| Total FORCE_EVAL ( QS ) energy [a.u.]:              -17.164344751592857

 Number of electrons:                                                          8
 Number of occupied orbitals:                                                  4
 Number of molecular orbitals:                                                 4

 Number of orbital functions:                                                 23
 Number of independent orbital functions:                                     23

 Extrapolation method: ASPC


 SCF WAVEFUNCTION OPTIMIZATION

  Step     Update method      Time    Convergence         Total energy    Change
  ------------------------------------------------------------------------------
     1 Pulay/Diag. 0.50E+00    0.1     0.03406703       -17.1640999977 -1.72E+01
     2 Pulay/Diag. 0.50E+00    0.3     0.01669989       -17.1042489143  5.99E-02
     3 Pulay/Diag. 0.50E+00    0.3     0.00562704       -17.1789823756 -7.47E-02
     4 Pulay/Diag. 0.50E+00    0.3     0.00080420       -17.1628295905  1.62E-02
     5 Pulay/Diag. 0.50E+00    0.3     0.00014566       -17.1651708659 -2.34E-03
     6 Pulay/Diag. 0.50E+00    0.3     0.00005877       -17.1645696329  6.01E-04
     7 Pulay/Diag. 0.50E+00    0.3     0.00001630       -17.1643757600  1.94E-04
     8 Pulay/Diag. 0.50E+00    0.3     0.00001289       -17.1643537472  2.20E-05
     9 Pulay/Diag. 0.50E+00    0.3     0.00000429       -17.1643432935  1.05E-05

  *** SCF run converged in     9 steps ***


  Electronic density on regular grids:         -8.0000016643       -0.0000016643
  Core density on regular grids:                7.9999997942       -0.0000002058
  Total charge density on r-space grids:       -0.0000018700
  Total charge density g-space grids:          -0.0000018700

  Overlap energy of the core charge distribution:               0.00000004502459
  Self energy of the core charge distribution:                -43.83289054591484
  Core Hamiltonian energy:                                     12.82098050002125
  Hartree energy:                                              17.97477184103388
  Exchange-correlation energy:                                 -4.12720513365576

  Total energy:                                               -17.16434329349087

 ENERGY| Total FORCE_EVAL ( QS ) energy [a.u.]:              -17.164344687723894

 *******************************************************************************
 ***                 BRENT   - NUMBER OF ENERGY EVALUATIONS :       5        ***
 *******************************************************************************

 --------  Informations at step =     1 ------------
  Optimization Method        =                   SD
  Total Energy               =       -17.1643447516
  Real energy change         =        -0.0006776664
  Decrease in energy         =                  YES
  Used time                  =               25.588

  Convergence check :
  Max. step size             =         0.0336570153
  Conv. limit for step size  =         0.0010000000
  Convergence in step size   =                   NO
  RMS step size              =         0.0168136887
  Conv. limit for RMS step   =         0.0010000000
  Convergence in RMS step    =                   NO
  Max. gradient              =         0.0182785668
  Conv. limit for gradients  =         0.0010000000
  Conv. for gradients        =                   NO
  RMS gradient               =         0.0091312355
  Conv. limit for RMS grad.  =         0.0010000000
  Conv. for gradients        =                   NO
 ---------------------------------------------------

 Number of electrons:                                                          8
 Number of occupied orbitals:                                                  4
 Number of molecular orbitals:                                                 4

 Number of orbital functions:                                                 23
 Number of independent orbital functions:                                     23

 Extrapolation method: ASPC


 SCF WAVEFUNCTION OPTIMIZATION

  Step     Update method      Time    Convergence         Total energy    Change
  ------------------------------------------------------------------------------
     1 Pulay/Diag. 0.50E+00    0.1     0.01125367       -17.1643176230 -1.72E+01
     2 Pulay/Diag. 0.50E+00    0.3     0.00576001       -17.1849798971 -2.07E-02
     3 Pulay/Diag. 0.50E+00    0.3     0.00190123       -17.1591895979  2.58E-02
     4 Pulay/Diag. 0.50E+00    0.3     0.00025408       -17.1647958483 -5.61E-03
     5 Pulay/Diag. 0.50E+00    0.3     0.00004687       -17.1640832870  7.13E-04
     6 Pulay/Diag. 0.50E+00    0.4     0.00001866       -17.1642752785 -1.92E-04
     7 Pulay/Diag. 0.50E+00    0.3     0.00000508       -17.1643364614 -6.12E-05

  *** SCF run converged in     7 steps ***


  Electronic density on regular grids:         -8.0000016642       -0.0000016642
  Core density on regular grids:                7.9999997923       -0.0000002077
  Total charge density on r-space grids:       -0.0000018719
  Total charge density g-space grids:          -0.0000018719

  Overlap energy of the core charge distribution:               0.00000004471872
  Self energy of the core charge distribution:                -43.83289054591484
  Core Hamiltonian energy:                                     12.82039054364332
  Hartree energy:                                              17.97520433177408
  Exchange-correlation energy:                                 -4.12704083560381

  Total energy:                                               -17.16433646138253

 ENERGY| Total FORCE_EVAL ( QS ) energy [a.u.]:              -17.164344751590843

 --------------------------
 OPTIMIZATION STEP:      2
 --------------------------

 Number of electrons:                                                          8
 Number of occupied orbitals:                                                  4
 Number of molecular orbitals:                                                 4

 Number of orbital functions:                                                 23
 Number of independent orbital functions:                                     23

 Extrapolation method: ASPC


 SCF WAVEFUNCTION OPTIMIZATION

  Step     Update method      Time    Convergence         Total energy    Change
  ------------------------------------------------------------------------------
     1 Pulay/Diag. 0.50E+00    0.1     0.00178634       -17.1643440679 -1.72E+01
     2 Pulay/Diag. 0.50E+00    0.3     0.00091688       -17.1610761920  3.27E-03
     3 Pulay/Diag. 0.50E+00    0.3     0.00029574       -17.1651676278 -4.09E-03
     4 Pulay/Diag. 0.50E+00    0.3     0.00003862       -17.1642796685  8.88E-04
     5 Pulay/Diag. 0.50E+00    0.3     0.00000742       -17.1643874703 -1.08E-04

  *** SCF run converged in     5 steps ***


  Electronic density on regular grids:         -8.0000016642       -0.0000016642
  Core density on regular grids:                7.9999997923       -0.0000002077
  Total charge density on r-space grids:       -0.0000018719
  Total charge density g-space grids:          -0.0000018719

  Overlap energy of the core charge distribution:               0.00000004471872
  Self energy of the core charge distribution:                -43.83289054591484
  Core Hamiltonian energy:                                     12.82035479193360
  Hartree energy:                                              17.97518460786427
  Exchange-correlation energy:                                 -4.12703636888597

  Total energy:                                               -17.16438747028421

 ENERGY| Total FORCE_EVAL ( QS ) energy [a.u.]:              -17.164387470284215

 Number of electrons:                                                          8
 Number of occupied orbitals:                                                  4
 Number of molecular orbitals:                                                 4

 Number of orbital functions:                                                 23
 Number of independent orbital functions:                                     23

 Extrapolation method: ASPC


 SCF WAVEFUNCTION OPTIMIZATION

  Step     Update method      Time    Convergence         Total energy    Change
  ------------------------------------------------------------------------------
     1 Pulay/Diag. 0.50E+00    0.1     0.01883383       -17.1642290779 -1.72E+01
     2 Pulay/Diag. 0.50E+00    0.3     0.00144760       -17.1634885456  7.41E-04
     3 Pulay/Diag. 0.50E+00    0.3     0.00076880       -17.1633552391  1.33E-04
     4 Pulay/Diag. 0.50E+00    0.3     0.00065799       -17.1618509909  1.50E-03
     5 Pulay/Diag. 0.50E+00    0.3     0.00010833       -17.1647392662 -2.89E-03
     6 Pulay/Diag. 0.50E+00    0.3     0.00001867       -17.1643040440  4.35E-04
     7 Pulay/Diag. 0.50E+00    0.3     0.00000510       -17.1642924479  1.16E-05

  *** SCF run converged in     7 steps ***


  Electronic density on regular grids:         -8.0000016389       -0.0000016389
  Core density on regular grids:                7.9999996294       -0.0000003706
  Total charge density on r-space grids:       -0.0000020095
  Total charge density g-space grids:          -0.0000020095

  Overlap energy of the core charge distribution:               0.00000004717883
  Self energy of the core charge distribution:                -43.83289054591484
  Core Hamiltonian energy:                                     12.82261556151511
  Hartree energy:                                              17.97352730596546
  Exchange-correlation energy:                                 -4.12754481661224

  Total energy:                                               -17.16429244786767

 ENERGY| Total FORCE_EVAL ( QS ) energy [a.u.]:              -17.164292447867670

 Number of electrons:                                                          8
 Number of occupied orbitals:                                                  4
 Number of molecular orbitals:                                                 4

 Number of orbital functions:                                                 23
 Number of independent orbital functions:                                     23

 Extrapolation method: ASPC


 SCF WAVEFUNCTION OPTIMIZATION

  Step     Update method      Time    Convergence         Total energy    Change
  ------------------------------------------------------------------------------
     1 Pulay/Diag. 0.50E+00    0.1     0.08748392       -17.1626675345 -1.72E+01
     2 Pulay/Diag. 0.50E+00    0.3     0.00869882       -17.1744207490 -1.18E-02
     3 Pulay/Diag. 0.50E+00    0.3     0.00492822       -17.1688112133  5.61E-03
     4 Pulay/Diag. 0.50E+00    0.3     0.00406450       -17.1801885657 -1.14E-02
     5 Pulay/Diag. 0.50E+00    0.3     0.00040090       -17.1624285593  1.78E-02
     6 Pulay/Diag. 0.50E+00    0.3     0.00009738       -17.1637709582 -1.34E-03
     7 Pulay/Diag. 0.50E+00    0.3     0.00002626       -17.1638620215 -9.11E-05
     8 Pulay/Diag. 0.50E+00    0.3     0.00001440       -17.1638886655 -2.66E-05
     9 Pulay/Diag. 0.50E+00    0.3     0.00000574       -17.1638927611 -4.10E-06

  *** SCF run converged in     9 steps ***


  Electronic density on regular grids:         -8.0000017083       -0.0000017083
  Core density on regular grids:                8.0000001268        0.0000001268
  Total charge density on r-space grids:       -0.0000015816
  Total charge density g-space grids:          -0.0000015816

  Overlap energy of the core charge distribution:               0.00000004628672
  Self energy of the core charge distribution:                -43.83289054591484
  Core Hamiltonian energy:                                     12.81660494431007
  Hartree energy:                                              17.97844033030500
  Exchange-correlation energy:                                 -4.12604753606517

  Total energy:                                               -17.16389276107822

 ENERGY| Total FORCE_EVAL ( QS ) energy [a.u.]:              -17.163892761078223

 *******************************************************************************
 ***                 MNBRACK - NUMBER OF ENERGY EVALUATIONS :       3        ***
 *******************************************************************************

 Number of electrons:                                                          8
 Number of occupied orbitals:                                                  4
 Number of molecular orbitals:                                                 4

 Number of orbital functions:                                                 23
 Number of independent orbital functions:                                     23

 Extrapolation method: ASPC


 SCF WAVEFUNCTION OPTIMIZATION

  Step     Update method      Time    Convergence         Total energy    Change
  ------------------------------------------------------------------------------
     1 Pulay/Diag. 0.50E+00    0.1     0.15723552       -17.1604095206 -1.72E+01
     2 Pulay/Diag. 0.50E+00    0.3     0.01562662       -17.1432337414  1.72E-02
     3 Pulay/Diag. 0.50E+00    0.3     0.00898724       -17.1560328263 -1.28E-02
     4 Pulay/Diag. 0.50E+00    0.3     0.00721789       -17.1350673470  2.10E-02
     5 Pulay/Diag. 0.50E+00    0.3     0.00066790       -17.1668046489 -3.17E-02
     6 Pulay/Diag. 0.50E+00    0.3     0.00011713       -17.1646401965  2.16E-03
     7 Pulay/Diag. 0.50E+00    0.3     0.00003686       -17.1644159594  2.24E-04
     8 Pulay/Diag. 0.50E+00    0.4     0.00002621       -17.1643583430  5.76E-05
     9 Pulay/Diag. 0.50E+00    0.4     0.00000848       -17.1643494323  8.91E-06

  *** SCF run converged in     9 steps ***


  Electronic density on regular grids:         -8.0000016642       -0.0000016642
  Core density on regular grids:                7.9999997923       -0.0000002077
  Total charge density on r-space grids:       -0.0000018719
  Total charge density g-space grids:          -0.0000018719

  Overlap energy of the core charge distribution:               0.00000004471872
  Self energy of the core charge distribution:                -43.83289054591484
  Core Hamiltonian energy:                                     12.82038528975334
  Hartree energy:                                              17.97519571249414
  Exchange-correlation energy:                                 -4.12703993330356

  Total energy:                                               -17.16434943225219

 ENERGY| Total FORCE_EVAL ( QS ) energy [a.u.]:              -17.164344751560588

 Number of electrons:                                                          8
 Number of occupied orbitals:                                                  4
 Number of molecular orbitals:                                                 4

 Number of orbital functions:                                                 23
 Number of independent orbital functions:                                     23

 Extrapolation method: ASPC


 SCF WAVEFUNCTION OPTIMIZATION

  Step     Update method      Time    Convergence         Total energy    Change
  ------------------------------------------------------------------------------
     1 Pulay/Diag. 0.50E+00    0.1     0.13386954       -17.1615670494 -1.72E+01
     2 Pulay/Diag. 0.50E+00    0.3     0.00966117       -17.1737748611 -1.22E-02
     3 Pulay/Diag. 0.50E+00    0.4     0.00594803       -17.1716119674  2.16E-03
     4 Pulay/Diag. 0.50E+00    0.3     0.00501011       -17.1839349919 -1.23E-02
     5 Pulay/Diag. 0.50E+00    0.3     0.00065728       -17.1617523971  2.22E-02
     6 Pulay/Diag. 0.50E+00    0.3     0.00015268       -17.1642248414 -2.47E-03
     7 Pulay/Diag. 0.50E+00    0.3     0.00004198       -17.1643147915 -9.00E-05
     8 Pulay/Diag. 0.50E+00    0.4     0.00002149       -17.1643473834 -3.26E-05
     9 Pulay/Diag. 0.50E+00    0.3     0.00000818       -17.1643506382 -3.25E-06

  *** SCF run converged in     9 steps ***


  Electronic density on regular grids:         -8.0000016504       -0.0000016504
  Core density on regular grids:                7.9999997042       -0.0000002958
  Total charge density on r-space grids:       -0.0000019462
  Total charge density g-space grids:          -0.0000019462

  Overlap energy of the core charge distribution:               0.00000004558986
  Self energy of the core charge distribution:                -43.83289054591484
  Core Hamiltonian energy:                                     12.82151176464342
  Hartree energy:                                              17.97433028819487
  Exchange-correlation energy:                                 -4.12730219073735

  Total energy:                                               -17.16435063822404

 ENERGY| Total FORCE_EVAL ( QS ) energy [a.u.]:              -17.164352300412631

 Number of electrons:                                                          8
 Number of occupied orbitals:                                                  4
 Number of molecular orbitals:                                                 4

 Number of orbital functions:                                                 23
 Number of independent orbital functions:                                     23

 Extrapolation method: ASPC


 SCF WAVEFUNCTION OPTIMIZATION

  Step     Update method      Time    Convergence         Total energy    Change
  ------------------------------------------------------------------------------
     1 Pulay/Diag. 0.50E+00    0.1     0.04824995       -17.1639997707 -1.72E+01
     2 Pulay/Diag. 0.50E+00    0.3     0.00397166       -17.1591825901  4.82E-03
     3 Pulay/Diag. 0.50E+00    0.3     0.00250056       -17.1616821863 -2.50E-03
     4 Pulay/Diag. 0.50E+00    0.3     0.00204121       -17.1560800788  5.60E-03
     5 Pulay/Diag. 0.50E+00    0.3     0.00020231       -17.1651227551 -9.04E-03
     6 Pulay/Diag. 0.50E+00    0.4     0.00004162       -17.1644354745  6.87E-04
     7 Pulay/Diag. 0.50E+00    0.4     0.00001091       -17.1643772091  5.83E-05
     8 Pulay/Diag. 0.50E+00    0.4     0.00000793       -17.1643612347  1.60E-05

  *** SCF run converged in     8 steps ***


  Electronic density on regular grids:         -8.0000016556       -0.0000016556
  Core density on regular grids:                7.9999997391       -0.0000002609
  Total charge density on r-space grids:       -0.0000019165
  Total charge density g-space grids:          -0.0000019165

  Overlap energy of the core charge distribution:               0.00000004515717
  Self energy of the core charge distribution:                -43.83289054591484
  Core Hamiltonian energy:                                     12.82106223770612
  Hartree energy:                                              17.97466565015291
  Exchange-correlation energy:                                 -4.12719862177382

  Total energy:                                               -17.16436123467246

 ENERGY| Total FORCE_EVAL ( QS ) energy [a.u.]:              -17.164357820066130

 Number of electrons:                                                          8
 Number of occupied orbitals:                                                  4
 Number of molecular orbitals:                                                 4

 Number of orbital functions:                                                 23
 Number of independent orbital functions:                                     23

 Extrapolation method: ASPC


 SCF WAVEFUNCTION OPTIMIZATION

  Step     Update method      Time    Convergence         Total energy    Change
  ------------------------------------------------------------------------------
     1 Pulay/Diag. 0.50E+00    0.1     0.00294652       -17.1643568958 -1.72E+01
     2 Pulay/Diag. 0.50E+00    0.3     0.00035415       -17.1641481877  2.09E-04
     3 Pulay/Diag. 0.50E+00    0.3     0.00015403       -17.1642082481 -6.01E-05
     4 Pulay/Diag. 0.50E+00    0.3     0.00012071       -17.1639031862  3.05E-04
     5 Pulay/Diag. 0.50E+00    0.4     0.00001802       -17.1644264076 -5.23E-04
     6 Pulay/Diag. 0.50E+00    0.4     0.00000192       -17.1643591888  6.72E-05

  *** SCF run converged in     6 steps ***


  Electronic density on regular grids:         -8.0000016555       -0.0000016555
  Core density on regular grids:                7.9999997382       -0.0000002618
  Total charge density on r-space grids:       -0.0000019173
  Total charge density g-space grids:          -0.0000019173

  Overlap energy of the core charge distribution:               0.00000004516714
  Self energy of the core charge distribution:                -43.83289054591484
  Core Hamiltonian energy:                                     12.82107322627409
  Hartree energy:                                              17.97465868464121
  Exchange-correlation energy:                                 -4.12720059899806

  Total energy:                                               -17.16435918883045

 ENERGY| Total FORCE_EVAL ( QS ) energy [a.u.]:              -17.164357824103835

 Number of electrons:                                                          8
 Number of occupied orbitals:                                                  4
 Number of molecular orbitals:                                                 4

 Number of orbital functions:                                                 23
 Number of independent orbital functions:                                     23

 Extrapolation method: ASPC


 SCF WAVEFUNCTION OPTIMIZATION

  Step     Update method      Time    Convergence         Total energy    Change
  ------------------------------------------------------------------------------
     1 Pulay/Diag. 0.50E+00    0.2     0.00802054       -17.1643473614 -1.72E+01
     2 Pulay/Diag. 0.50E+00    0.3     0.00075089       -17.1651422067 -7.95E-04
     3 Pulay/Diag. 0.50E+00    0.3     0.00042236       -17.1648297707  3.12E-04
     4 Pulay/Diag. 0.50E+00    0.3     0.00035232       -17.1657594683 -9.30E-04
     5 Pulay/Diag. 0.50E+00    0.3     0.00004055       -17.1642053521  1.55E-03
     6 Pulay/Diag. 0.50E+00    0.3     0.00000852       -17.1643479124 -1.43E-04

  *** SCF run converged in     6 steps ***


  Electronic density on regular grids:         -8.0000016554       -0.0000016554
  Core density on regular grids:                7.9999997376       -0.0000002624
  Total charge density on r-space grids:       -0.0000019178
  Total charge density g-space grids:          -0.0000019178

  Overlap energy of the core charge distribution:               0.00000004517292
  Self energy of the core charge distribution:                -43.83289054591484
  Core Hamiltonian energy:                                     12.82108857499077
  Hartree energy:                                              17.97465659590584
  Exchange-correlation energy:                                 -4.12720258250730

  Total energy:                                               -17.16434791235260

 ENERGY| Total FORCE_EVAL ( QS ) energy [a.u.]:              -17.164357822763769

 *******************************************************************************
 ***                 BRENT   - NUMBER OF ENERGY EVALUATIONS :       5        ***
 *******************************************************************************

 --------  Informations at step =     2 ------------
  Optimization Method        =                   CG
  Total Energy               =       -17.1643578241
  Real energy change         =        -0.0000130725
  Decrease in energy         =                  YES
  Used time                  =               24.558

  Convergence check :
  Max. step size             =         0.0084583581
  Conv. limit for step size  =         0.0010000000
  Convergence in step size   =                   NO
  RMS step size              =         0.0041000944
  Conv. limit for RMS step   =         0.0010000000
  Convergence in RMS step    =                   NO
  Max. gradient              =         0.0014597308
  Conv. limit for gradients  =         0.0010000000
  Conv. for gradients        =                   NO
  RMS gradient               =         0.0007075882
  Conv. limit for RMS grad.  =         0.0010000000
  Conv. in RMS gradients     =                  YES
 ---------------------------------------------------

 Number of electrons:                                                          8
 Number of occupied orbitals:                                                  4
 Number of molecular orbitals:                                                 4

 Number of orbital functions:                                                 23
[...]

  Overlap energy of the core charge distribution:               0.00000004555605
  Self energy of the core charge distribution:                -43.83289054591484
  Core Hamiltonian energy:                                     12.82176932837849
  Hartree energy:                                              17.97394644810711
  Exchange-correlation energy:                                 -4.12745134716823

  Total energy:                                               -17.16462607104141

 ENERGY| Total FORCE_EVAL ( QS ) energy [a.u.]:              -17.164620477332239

 *******************************************************************************
 ***                 BRENT   - NUMBER OF ENERGY EVALUATIONS :       4        ***
 *******************************************************************************

 --------  Informations at step =    11 ------------
  Optimization Method        =                   SD
  Total Energy               =       -17.1646204773
  Real energy change         =        -0.0000000529
  Decrease in energy         =                  YES
  Used time                  =               14.285

  Convergence check :
  Max. step size             =         0.0003393777
  Conv. limit for step size  =         0.0010000000
  Convergence in step size   =                  YES
  RMS step size              =         0.0001493511
  Conv. limit for RMS step   =         0.0010000000
  Convergence in RMS step    =                  YES
  Max. gradient              =         0.0001787811
  Conv. limit for gradients  =         0.0010000000
  Conv. in gradients         =                  YES
  RMS gradient               =         0.0000786768
  Conv. limit for RMS grad.  =         0.0010000000
  Conv. in RMS gradients     =                  YES
 ---------------------------------------------------

 *******************************************************************************
 ***                    GEOMETRY OPTIMIZATION COMPLETED                      ***
 *******************************************************************************

                    Reevaluating energy at the minimum

 Number of electrons:                                                          8
 Number of occupied orbitals:                                                  4
 Number of molecular orbitals:                                                 4

 Number of orbital functions:                                                 23
 Number of independent orbital functions:                                     23

 Extrapolation method: ASPC


 SCF WAVEFUNCTION OPTIMIZATION

  Step     Update method      Time    Convergence         Total energy    Change
  ------------------------------------------------------------------------------
     1 Pulay/Diag. 0.50E+00    0.1     0.00005610       -17.1646204769 -1.72E+01
     2 Pulay/Diag. 0.50E+00    0.3     0.00000563       -17.1646347273 -1.43E-05

  *** SCF run converged in     2 steps ***


  Electronic density on regular grids:         -8.0000016293       -0.0000016293
  Core density on regular grids:                7.9999992519       -0.0000007481
  Total charge density on r-space grids:       -0.0000023775
  Total charge density g-space grids:          -0.0000023775

  Overlap energy of the core charge distribution:               0.00000004555422
  Self energy of the core charge distribution:                -43.83289054591484
  Core Hamiltonian energy:                                     12.82175609863969
  Hartree energy:                                              17.97395116248502
  Exchange-correlation energy:                                 -4.12745148803461

  Total energy:                                               -17.16463472727053

 ENERGY| Total FORCE_EVAL ( QS ) energy [a.u.]:              -17.164634727270528

 -------------------------------------------------------------------------------
 -                                                                             -
 -                                DBCSR STATISTICS                             -
 -                                                                             -
 -------------------------------------------------------------------------------
 COUNTER                                    TOTAL       BLAS       SMM       ACC
 flops     5 x     4 x     5               312000     100.0%      0.0%      0.0%
 flops    13 x     4 x     5               405600     100.0%      0.0%      0.0%
 flops     5 x     4 x    13               405600     100.0%      0.0%      0.0%
 flops    13 x     5 x     4               412360     100.0%      0.0%      0.0%
 flops     5 x    13 x     4               412360     100.0%      0.0%      0.0%
 flops     5 x     5 x     4               475800     100.0%      0.0%      0.0%
 flops    13 x     4 x    13               527280     100.0%      0.0%      0.0%
 flops    13 x    13 x     4              1072136     100.0%      0.0%      0.0%
 flops inhomo. stacks                           0       0.0%      0.0%      0.0%
 flops total                         4.023136E+06     100.0%      0.0%      0.0%
 flops max/rank                      2.417376E+06     100.0%      0.0%      0.0%
 matmuls inhomo. stacks                         0       0.0%      0.0%      0.0%
 matmuls total                               8268     100.0%      0.0%      0.0%
 number of processed stacks                  7475     100.0%      0.0%      0.0%
 average stack size                                     1.1       0.0       0.0
 marketing flops                     5.006456E+06
 -------------------------------------------------------------------------------
 # multiplications                           1183
 max memory usage/rank               0.000000E+00
 # max total images/rank                        2
 # max 3D layers                                1
 # MPI messages exchanged                    2366
 MPI messages size (bytes):
  total size                       870.688000E+03
  min size                           0.000000E+00
  max size                         736.000000E+00
  average size                     368.000000E+00
 MPI breakdown and total messages size (bytes):
             size <=      128                 793                        0
       128 < size <=     8192                1573                   870688
      8192 < size <=    32768                   0                        0
     32768 < size <=   131072                   0                        0
    131072 < size <=  4194304                   0                        0
   4194304 < size <= 16777216                   0                        0
  16777216 < size                               0                        0
 -------------------------------------------------------------------------------

 *** WARNING in dbcsr_mm.F:294 :: Using a non-square number of MPI ranks ***
 *** might lead to poor performance. Used ranks: 2 Suggested: 1 4        ***

 -------------------------------------------------------------------------------
 -                                                                             -
 -                      DBCSR MESSAGE PASSING PERFORMANCE                      -
 -                                                                             -
 -------------------------------------------------------------------------------
 ROUTINE             CALLS      AVE VOLUME [Bytes]
 MP_Bcast                9                     12.
 MP_Allreduce         6557                      8.
 MP_Alltoall         24540                    699.
 MP_ISend             7878                    168.
 MP_IRecv             9464                     88.
 -------------------------------------------------------------------------------

 -------------------------------------------------------------------------------
 -                                                                             -
 -                                GRID STATISTICS                              -
 -                                                                             -
 -------------------------------------------------------------------------------
 LP    KERNEL             BACKEND                              COUNT     PERCENT
 1     collocate ortho    REF                                  40238      19.30%
 1     integrate ortho    REF                                  37514      17.99%
 0     collocate ortho    REF                                  32919      15.79%
 0     integrate ortho    REF                                  28372      13.61%
 2     collocate ortho    REF                                  25585      12.27%
 2     integrate ortho    REF                                  25517      12.24%
 3     integrate ortho    REF                                   8505       4.08%
 3     collocate ortho    REF                                   7310       3.51%
 4     integrate ortho    REF                                   1260       0.60%
 4     collocate ortho    REF                                    731       0.35%
 0     collocate general  REF                                    303       0.15%
 1     integrate general  REF                                    189       0.09%
 5     integrate ortho    REF                                     63       0.03%
 -------------------------------------------------------------------------------

 MEMORY| Estimated peak process memory [MiB]                                   0

 -------------------------------------------------------------------------------
 -                                                                             -
 -                         MESSAGE PASSING PERFORMANCE                         -
 -                                                                             -
 -------------------------------------------------------------------------------

 ROUTINE             CALLS      AVE VOLUME [Bytes]
 MP_Group                4
 MP_Bcast              753                 573637.
 MP_Allreduce         9559                     38.
 MP_Sync               634
 MP_Alltoall          7750               19988115.
 MP_ISendRecv         5860                1679071.
 MP_Wait              5860
 -------------------------------------------------------------------------------


 -------------------------------------------------------------------------------
 -                                                                             -
 -                           R E F E R E N C E S                               -
 -                                                                             -
 -------------------------------------------------------------------------------
 
 CP2K version 8.2, the CP2K developers group (2021).
 CP2K is freely available from https://www.cp2k.org/ .

 Kuehne,Thomas D.; Iannuzzi,Marcella; Del Ben,Mauro;
 Rybkin,Vladimir V.; Seewald,Patrick; Stein,Frederick; Laino,Teodoro;
 Khaliullin,Rustam Z.; Schuett,Ole; Schiffmann,Florian; Golze,Dorothea;
 Wilhelm,Jan; Chulkov,Sergey; Bani-Hashemian,Mohammad Hossein;
 Weber,Valery; Borstnik,Urban; Taillefumier,Mathieu;
 Jakobovits,Alice Shoshana; Lazzaro,Alfio; Pabst,Hans; Mueller,Tiziano;
 Schade,Robert; Guidon,Manuel; Andermatt,Samuel; Holmberg,Nico;
 Schenter,Gregory K.; Hehn,Anna; Bussy,Augustin; Belleflamme,Fabian;
 Tabacchi,Gloria; Gloess,Andreas; Lass,Michael; Bethune,Iain;
 Mundy,Christopher J.; Plessl,Christian; Watkins,Matt;
 VandeVondele,Joost; Krack,Matthias; Hutter,Juerg. 
 The Journal of Chemical Physics, 152 (19), (2020). 
 CP2K: An electronic structure and molecular dynamics software package -
 Quickstep: Efficient and accurate electronic structure calculations.
 https://doi.org/10.1063/5.0007045

 Schuett, Ole; Messmer, Peter; Hutter, Juerg; VandeVondele, Joost. 
 Electronic Structure Calculations on Graphics Processing Units, John
 Wiley & Sons, Ltd, 173-190 (2016). 
 GPU-Accelerated Sparse Matrix-Matrix Multiplication for
 Linear Scaling Density Functional Theory.
 https://doi.org/10.1002/9781118670712.ch8

 Borstnik, U; VandeVondele, J; Weber, V; Hutter, J. 
 PARALLEL COMPUTING, 40 (5-6), 47-58 (2014). 
 Sparse matrix multiplication: The distributed block-compressed sparse
 row library.
 https://doi.org/10.1016/j.parco.2014.03.012

 Hutter, J; Iannuzzi, M; Schiffmann, F; VandeVondele, J. 
 WIREs Comput Mol Sci., 4 (1), 15-25 (2014). 
 CP2K: atomistic simulations of condensed matter systems.
 https://doi.org/10.1002/wcms.1159

 Kuhne, TD; Krack, M; Mohamed, FR; Parrinello, M. 
 PHYSICAL REVIEW LETTERS, 98 (6), 066401 (2007). 
 Efficient and accurate Car-Parrinello-like approach to
 Born-Oppenheimer molecular dynamics.
 https://doi.org/10.1103/PhysRevLett.98.066401

 Krack, M. 
 THEORETICAL CHEMISTRY ACCOUNTS, 114 (1-3), 145-152 (2005). 
 Pseudopotentials for H to Kr optimized for gradient-corrected
 exchange-correlation functionals.
 https://doi.org/10.1007/s00214-005-0655-y

 VandeVondele, J; Krack, M; Mohamed, F; Parrinello, M; Chassaing, T;
 Hutter, J. COMPUTER PHYSICS COMMUNICATIONS, 167 (2), 103-128 (2005). 
 QUICKSTEP: Fast and accurate density functional calculations using a
 mixed Gaussian and plane waves approach.
 https://doi.org/10.1016/j.cpc.2004.12.014

 Frigo, M; Johnson, SG. 
 PROCEEDINGS OF THE IEEE, 93 (2), 216-231 (2005). 
 The design and implementation of FFTW3.
 https://doi.org/10.1109/JPROC.2004.840301

 Kolafa, J. 
 JOURNAL OF COMPUTATIONAL CHEMISTRY, 25 (3), 335-342 (2004). 
 Time-reversible always stable predictor-corrector method for molecular dynamics of polarizable molecules.
 https://doi.org/10.1002/jcc.10385

 Hartwigsen, C; Goedecker, S; Hutter, J. 
 PHYSICAL REVIEW B, 58 (7), 3641-3662 (1998). 
 Relativistic separable dual-space Gaussian pseudopotentials from H to Rn.
 https://doi.org/10.1103/PhysRevB.58.3641

 Lippert, G; Hutter, J; Parrinello, M. 
 MOLECULAR PHYSICS, 92 (3), 477-487 (1997). 
 A hybrid Gaussian and plane wave density functional scheme.
 https://doi.org/10.1080/002689797170220

 Goedecker, S; Teter, M; Hutter, J. 
 PHYSICAL REVIEW B, 54 (3), 1703-1710 (1996). 
 Separable dual-space Gaussian pseudopotentials.
 https://doi.org/10.1103/PhysRevB.54.1703


 -------------------------------------------------------------------------------
 -                                                                             -
 -                                T I M I N G                                  -
 -                                                                             -
 -------------------------------------------------------------------------------
 SUBROUTINE                       CALLS  ASD         SELF TIME        TOTAL TIME
                                MAXIMUM       AVERAGE  MAXIMUM  AVERAGE  MAXIMUM
 CP2K                                 1  1.0    0.049    0.050  236.811  236.812
 cp_geo_opt                           1  2.0    0.000    0.000  236.535  236.535
 geoopt_cg                            1  3.0    0.000    0.000  236.535  236.535
 cp_cg_main                           1  4.0    0.001    0.001  236.535  236.535
 cp_eval_at                         101  8.5    0.005    0.005  236.524  236.532
 qs_energies                        101 10.1    0.005    0.006  228.627  228.640
 cg_linmin                           11  5.0    0.000    0.000  210.350  210.350
 linmin_gold                         11  6.0    0.000    0.000  210.350  210.350
 scf_env_do_scf                     101 11.1    0.004    0.004  196.723  196.724
 scf_env_do_scf_inner_loop          630 12.2    0.058    0.102  196.719  196.719
 qs_forces                           63  9.3    0.004    0.004  159.900  159.907
 cg_dbrent                           11  7.0    0.000    0.000  134.666  134.666
 cg_deval1d                          52  8.0    0.000    0.000  134.665  134.665
 pw_transfer                       9136 17.1    0.033    0.034  111.001  111.007
 fft_wrap_pw1pw2                   7750 18.1    0.125    0.127  107.796  107.798
 qs_rho_update_rho                  731 13.4    0.003    0.003   98.100   98.109
 calculate_rho_elec                 731 14.4    3.250    3.416   98.097   98.106
 fft_wrap_pw1pw2_100               3478 18.4   15.467   15.525   94.968   94.974
 rebuild_ks_matrix                  693 14.0    0.002    0.002   79.108   79.187
 qs_ks_build_kohn_sham_matrix       693 15.0    0.079    0.080   79.106   79.185
 cg_mnbrak                           11  7.0    0.000    0.000   75.684   75.684
 cg_eval1d                           37  8.0    0.000    0.000   75.684   75.684
 qs_ks_update_qs_env                630 13.2    0.004    0.005   71.564   71.592
 fft3d_ps                          7750 20.1   47.493   47.543   69.660   69.773
 density_rs2pw                      731 15.4    0.045    0.045   59.871   59.903
 grid_collocate_task_list           731 15.4   34.833   34.996   34.833   34.996
 sum_up_and_integrate               693 16.0    0.765    0.768   33.990   34.073
 integrate_v_rspace                 693 17.0    0.172    0.176   33.224   33.308
 potential_pw2rs                    693 18.0    0.158    0.158   32.084   32.087
 gspace_mixing                      529 13.3    1.970    1.974   30.165   30.165
 init_scf_run                       101 11.1    0.004    0.005   24.574   24.582
 scf_env_initial_rho_setup          101 12.1    0.002    0.002   24.281   24.282
 wfi_extrapolate                    101 13.1    0.005    0.005   19.780   19.781
 rs_pw_transfer                    5860 17.5    0.057    0.057   16.219   16.229
 pulay_mixing                       529 14.3   14.223   14.252   14.270   14.300
 pw_poisson_solve                   693 16.0    5.036    5.054   14.188   14.189
 x_to_yz                           4032 21.4    8.518    8.550   13.656   13.731
 pw_scatter_p                      4032 20.4   11.949   12.014   11.949   12.014
 dbcsr_multiply_generic            1183 16.1    0.178    0.179   11.931   11.982
 qs_scf_new_mos                     630 13.2    0.007    0.007   10.552   10.642
 cp_dbcsr_plus_fm_fm_t_native       793 15.1    0.010    0.010   10.401   10.432
 calculate_dm_sparse                730 14.2    0.003    0.003    9.533    9.564
 mp_alltoall_z22v                  7750 22.1    9.178    9.287    9.178    9.287
 rs_pw_transfer_RS2PW_100           832 17.1    7.328    7.340    8.545    8.567
 pw_gather_p                       3718 19.8    8.428    8.446    8.428    8.446
 yz_to_x                           3718 20.8    4.301    4.321    8.342    8.427
 qs_vxc_create                      693 16.0    0.012    0.013    7.619    7.629
 qs_ks_update_qs_env_forces          63 10.3    0.000    0.000    7.610    7.622
 xc_vxc_pw_create                   693 17.0    2.689    2.692    7.607    7.617
 fft_wrap_pw1pw2_40                1424 19.6    1.359    1.361    7.433    7.434
 pw_copy                           5544 18.3    7.168    7.181    7.168    7.181
 qs_energies_init_hamiltonians      101 11.1    0.001    0.001    6.156    6.164
 pw_integral_ab                     693 17.0    5.920    5.927    5.964    5.974
 qs_env_update_s_mstruct            101 12.1    0.001    0.001    5.624    5.633
 make_m2s                          2366 17.1    0.033    0.033    5.486    5.491
 rs_pw_transfer_PW2RS_100           756 19.6    4.207    4.210    5.154    5.156
 cp_dbcsr_sm_fm_multiply            390 14.2    0.007    0.007    4.943    4.943
 -------------------------------------------------------------------------------

 The number of warnings for this run is : 1
 
 -------------------------------------------------------------------------------
  **** **** ******  **  PROGRAM ENDED AT                 2022-02-12 18:51:34.036
 ***** ** ***  *** **   PROGRAM RAN ON                    Jans-MacBook-Pro.local
 **    ****   ******    PROGRAM RAN BY                                  jvanbuel
 ***** **    ** ** **   PROGRAM PROCESS ID                                  8770
  **** **  *******  **  PROGRAM STOPPED IN /Users/jvanbuel/openmpi-playground/cp
                                           2k
